<VTKFile type="PolyData" version="1.0" byte_order="LittleEndian" header_type="UInt64">
  <PolyData>
    <Piece NumberOfPoints="2646" NumberOfVerts="0" NumberOfLines="0" NumberOfStrips="0" NumberOfPolys="2400">
      <PointData Scalars="RTData">
        <DataArray type="Float32" Name="RTData" format="ascii" RangeMin="37.35310363769531" RangeMax="186.72914123535156">
          60.763465881347656 69.19681549072266 50.62128448486328 49.75050354003906 77.9343032836914 91.83047485351562
          73.72747802734375 64.24596405029297 86.65196228027344 103.45639038085938 85.96935272216797 67.54656982421875
          81.57164764404297 99.43704986572266 83.78643035888672 58.06247329711914 63.09804153442383 81.41954803466797
          69.93791198730469 40.26057434082031 37.35310363769531 67.6950454711914 76.6935043334961 58.67116928100586
          58.32912063598633 87.00435638427734 101.342041015625 83.61878967285156 74.44468688964844 97.07694244384766
          114.01985168457031 96.5794448852539 78.11003112792969 91.99662017822266 109.63577270507812 93.67774963378906
          67.57404327392578 72.1680908203125 89.9981689453125 77.98779296875 47.75726318359375 44.28468704223633
          65.15606689453125 74.70771789550781 57.226924896240234 57.4024658203125 86.55877685546875 101.32867431640625
          83.9771728515625 75.10398864746094 97.95773315429688 115.03621673583984 97.6414566040039 79.12639617919922
          92.87741088867188 110.29507446289062 94.0361328125 67.56067657470703 71.7225112915039 89.07151794433594
          76.54354858398438 45.771480560302734 41.74570846557617 75.93347930908203 86.01386260986328 69.0506591796875
          69.72090148925781 99.3370132446289 114.52001190185547 97.52381134033203 88.93824768066406 112.0036849975586
          129.2117462158203 111.8606185913086 93.30193328857422 106.9233627319336 124.12933349609375 107.58277130126953
          80.75201416015625 84.50074768066406 101.38995361328125 88.3672866821289 57.0776252746582 52.52312088012695
          84.40021514892578 94.97203063964844 78.48989868164062 79.61994171142578 109.66341400146484 125.23037719726562
          108.56441497802734 100.24617767333984 123.50836944580078 140.8368682861328 123.52628326416016 104.92705535888672
          118.42804718017578 135.437255859375 118.62337493896484 91.4623794555664 94.8271484375 111.28898620605469
          97.80652618408203 66.0357894897461 60.98985290527344 80.41588592529297 91.4292221069336 75.37930297851562
          76.92244720458984 107.34988403320312 123.26179504394531 106.89253234863281 98.81446838378906 122.25343322753906
          139.6901397705078 122.4159927368164 103.78032684326172 117.17311096191406 134.00555419921875 116.95149230957031
          89.4937973022461 92.51361846923828 108.59149932861328 94.69593048095703 62.49298095703125 57.005523681640625
          87.69422149658203 99.0873031616211 83.40913391113281 85.30758666992188 116.06525421142578 132.27386474609375
          116.15979766845703 108.2883071899414 131.8793182373047 149.40908813476562 132.16627502441406 113.499267578125
          126.79898834228516 143.47938537597656 126.21875 98.50587463378906 101.22898864746094 116.97663116455078
          102.72576141357422 70.15106964111328 64.28385925292969 96.30712890625 108.00761413574219 92.63037109375
          94.81643676757812 125.8414306640625 142.29022216796875 126.38272094726562 118.67845153808594 142.3925323486328
          159.99765014648438 142.7801971435547 124.08782958984375 137.3122100830078 153.86953735351562 136.44168090820312
          108.52222442626953 111.00516510009766 126.48548126220703 111.94699096679688 79.07138061523438 72.89676666259766
          90.50835418701172 102.43509674072266 87.27933502197266 89.67709350585938 120.89884948730469 137.5244140625
          121.76895141601562 114.18775939941406 137.992431640625 155.6529998779297 138.45420837402344 119.74317169189453
          132.912109375 149.37884521484375 131.82791137695312 103.75641632080078 106.06258392333984 121.34614562988281
          106.59596252441406 73.49885559082031 67.09799194335938 93.08551025390625 105.15074920654297 90.13056182861328
          92.65789794921875 124.00009155273438 140.73385620117188 125.07146453857422 117.56560516357422 141.4257354736328
          159.1202392578125 141.93287658691406 123.21041107177734 136.3454132080078 152.75669860839844 135.1304168701172
          106.96585845947266 109.16382598876953 124.32694244384766 109.44718933105469 76.21450805664062 69.6751480102539
          100.63412475585938 112.74598693847656 97.77144622802734 100.3424072265625 131.7251434326172 148.49534606933594
          132.86428833007812 125.38379669189453 149.26258850097656 166.96852111816406 149.78500366210938 131.05870056152344
          144.18226623535156 160.5748748779297 142.92324829101562 114.72734832763672 116.88888549804688 132.01145935058594
          117.08806610107422 83.80974578857422 77.22376251220703 93.08551025390625 105.15074920654297 90.13056182861328
          92.65789794921875 124.00009155273438 140.73385620117188 125.07146453857422 117.56560516357422 141.4257354736328
          159.1202392578125 141.93287658691406 123.21041107177734 136.3454132080078 152.75669860839844 135.1304168701172
          106.96585845947266 109.16382598876953 124.32694244384766 109.44718933105469 76.21450805664062 69.6751480102539
          90.50835418701172 102.43509674072266 87.27933502197266 89.67709350585938 120.89884948730469 137.5244140625
          121.76895141601562 114.18775939941406 137.992431640625 155.6529998779297 138.45420837402344 119.74317169189453
          132.912109375 149.37884521484375 131.82791137695312 103.75641632080078 106.06258392333984 121.34614562988281
          106.59596252441406 73.49885559082031 67.09799194335938 96.30712890625 108.00761413574219 92.63037109375
          94.81643676757812 125.8414306640625 142.29022216796875 126.38272094726562 118.67845153808594 142.3925323486328
          159.99765014648438 142.7801971435547 124.08782958984375 137.3122100830078 153.86953735351562 136.44168090820312
          108.52222442626953 111.00516510009766 126.48548126220703 111.94699096679688 79.07138061523438 72.89676666259766
          87.69422149658203 99.0873031616211 83.40913391113281 85.30758666992188 116.06525421142578 132.27386474609375
          116.15979766845703 108.2883071899414 131.8793182373047 149.40908813476562 132.16627502441406 113.499267578125
          126.79898834228516 143.47938537597656 126.21875 98.50587463378906 101.22898864746094 116.97663116455078
          102.72576141357422 70.15106964111328 64.28385925292969 80.41588592529297 91.4292221069336 75.37930297851562
          76.92244720458984 107.34988403320312 123.26179504394531 106.89253234863281 98.81446838378906 122.25343322753906
          139.6901397705078 122.4159927368164 103.78032684326172 117.17311096191406 134.00555419921875 116.95149230957031
          89.4937973022461 92.51361846923828 108.59149932861328 94.69593048095703 62.49298095703125 57.005523681640625
          84.40021514892578 94.97203063964844 78.48989868164062 79.61994171142578 109.66341400146484 125.23037719726562
          108.56441497802734 100.24617767333984 123.50836944580078 140.8368682861328 123.52628326416016 104.92705535888672
          118.42804718017578 135.437255859375 118.62337493896484 91.4623794555664 94.8271484375 111.28898620605469
          97.80652618408203 66.0357894897461 60.98985290527344 75.93347930908203 86.01386260986328 69.0506591796875
          69.72090148925781 99.3370132446289 114.52001190185547 97.52381134033203 88.93824768066406 112.0036849975586
          129.2117462158203 111.8606185913086 93.30193328857422 106.9233627319336 124.12933349609375 107.58277130126953
          80.75201416015625 84.50074768066406 101.38995361328125 88.3672866821289 57.0776252746582 52.52312088012695
          65.15606689453125 74.70771789550781 57.226924896240234 57.4024658203125 86.55877685546875 101.32867431640625
          83.9771728515625 75.10398864746094 97.95773315429688 115.03621673583984 97.6414566040039 79.12639617919922
          92.87741088867188 110.29507446289062 94.0361328125 67.56067657470703 71.7225112915039 89.07151794433594
          76.54354858398438 45.771480560302734 41.74570846557617 67.6950454711914 76.6935043334961 58.67116928100586
          58.32912063598633 87.00435638427734 101.342041015625 83.61878967285156 74.44468688964844 97.07694244384766
          114.01985168457031 96.5794448852539 78.11003112792969 91.99662017822266 109.63577270507812 93.67774963378906
          67.57404327392578 72.1680908203125 89.9981689453125 77.98779296875 47.75726318359375 44.28468704223633
          60.763465881347656 69.19681549072266 50.62128448486328 49.75050354003906 77.9343032836914 91.83047485351562
          73.72747802734375 64.24596405029297 86.65196228027344 103.45639038085938 85.96935272216797 67.54656982421875
          81.57164764404297 99.43704986572266 83.78643035888672 58.06247329711914 63.09804153442383 81.41954803466797
          69.93791198730469 40.26057434082031 37.35310363769531 80.52410125732422 87.45568084716797 84.91670227050781
          95.6941146850586 104.16084289550781 100.17652130126953 107.4548568725586 116.06776428222656 110.26898956298828
          112.84614562988281 120.3947525024414 112.84614562988281 110.26898956298828 116.06776428222656 107.4548568725586
          100.17652130126953 104.16084289550781 95.6941146850586 84.91670227050781 87.45568084716797 80.52410125732422
          88.95744323730469 96.45413208007812 94.46835327148438 105.77449798583984 114.73265838623047 111.18984985351562
          118.84793853759766 127.76824951171875 122.19573211669922 124.911376953125 132.50662231445312 124.911376953125
          122.19573211669922 127.76824951171875 118.84793853759766 111.18984985351562 114.73265838623047 105.77449798583984
          94.46835327148438 96.45413208007812 88.95744323730469 70.38191223144531 78.43180084228516 76.98755645751953
          88.81129455566406 98.25052642822266 95.13993835449219 103.16976928710938 112.39099884033203 107.03997039794922
          109.89118957519531 117.53207397460938 109.89118957519531 107.03997039794922 112.39099884033203 103.16976928710938
          95.13993835449219 98.25052642822266 88.81129455566406 76.98755645751953 78.43180084228516 70.38191223144531
          69.5111312866211 78.08975219726562 77.16310119628906 89.48153686523438 99.38056945800781 96.6830825805664
          105.0682144165039 114.57706451416016 109.43772888183594 112.41852569580078 120.10303497314453 112.41852569580078
          109.43772888183594 114.57706451416016 105.0682144165039 96.6830825805664 99.38056945800781 89.48153686523438
          77.16310119628906 78.08975219726562 69.5111312866211 97.69493865966797 106.76498413085938 106.31941223144531
          119.09764862060547 129.42404174804688 127.11051177978516 135.8258819580078 145.60206604003906 140.65948486328125
          143.76072692871094 151.48577880859375 143.76072692871094 140.65948486328125 145.60206604003906 135.8258819580078
          127.11051177978516 129.42404174804688 119.09764862060547 106.31941223144531 106.76498413085938 97.69493865966797
          111.59110260009766 121.10267639160156 121.08930969238281 134.2806396484375 144.9910125732422 143.02243041992188
          152.0345001220703 162.0508575439453 157.28504943847656 160.49449157714844 168.2559814453125 160.49449157714844
          157.28504943847656 162.0508575439453 152.0345001220703 143.02243041992188 144.9910125732422 134.2806396484375
          121.08930969238281 121.10267639160156 111.59110260009766 93.48810577392578 103.37942504882812 103.73780059814453
          117.2844467163086 128.32504272460938 126.65316772460938 135.92042541503906 146.1433563232422 141.5295867919922
          144.83209228515625 152.6249237060547 144.83209228515625 141.5295867919922 146.1433563232422 135.92042541503906
          126.65316772460938 128.32504272460938 117.2844467163086 103.73780059814453 103.37942504882812 93.48810577392578
          84.00659942626953 94.20531463623047 94.8646240234375 108.69888305664062 120.00680541992188 118.57510375976562
          128.04893493652344 138.4390869140625 133.94839477539062 137.32623291015625 145.14442443847656 137.32623291015625
          133.94839477539062 138.4390869140625 128.04893493652344 118.57510375976562 120.00680541992188 108.69888305664062
          94.8646240234375 94.20531463623047 84.00659942626953 106.41259765625 116.83757019042969 117.7183609008789
          131.76431274414062 143.2689971923828 142.01406860351562 151.6399383544922 162.15316772460938 157.75306701660156
          161.1863555908203 169.02320861816406 161.1863555908203 157.75306701660156 162.15316772460938 151.6399383544922
          142.01406860351562 143.2689971923828 131.76431274414062 117.7183609008789 116.83757019042969 106.41259765625
          123.2170181274414 133.78048706054688 134.79684448242188 148.97238159179688 160.59750366210938 159.45077514648438
          169.1697235107422 179.75828552246094 175.4136199951172 178.880859375 186.72914123535156 178.880859375
          175.4136199951172 179.75828552246094 169.1697235107422 159.45077514648438 160.59750366210938 148.97238159179688
          134.79684448242188 133.78048706054688 123.2170181274414 105.72998046875 116.34008026123047 117.40209197998047
          131.62124633789062 143.2869110107422 142.17662048339844 151.92689514160156 162.5408172607422 158.21484375
          161.69349670410156 169.54563903808594 161.69349670410156 158.21484375 162.5408172607422 151.92689514160156
          142.17662048339844 143.2869110107422 131.62124633789062 117.40209197998047 116.34008026123047 105.72998046875
          87.30719757080078 97.87066650390625 98.88703155517578 113.06256103515625 124.68768310546875 123.54095458984375
          133.25990295410156 143.8484649658203 139.50379943847656 142.97103881835938 150.81932067871094 142.97103881835938
          139.50379943847656 143.8484649658203 133.25990295410156 123.54095458984375 124.68768310546875 113.06256103515625
          98.88703155517578 97.87066650390625 87.30719757080078 101.332275390625 111.75724792480469 112.6380386352539
          126.68399047851562 138.1886749267578 136.93374633789062 146.5596160888672 157.07284545898438 152.67274475097656
          156.1060333251953 163.94290161132812 156.1060333251953 152.67274475097656 157.07284545898438 146.5596160888672
          136.93374633789062 138.1886749267578 126.68399047851562 112.6380386352539 111.75724792480469 101.332275390625
          119.19768524169922 129.3964080810547 130.0557098388672 143.8899688720703 155.19789123535156 153.7661895751953
          163.24002075195312 173.6301727294922 169.1394805908203 172.51731872558594 180.33551025390625 172.51731872558594
          169.1394805908203 173.6301727294922 163.24002075195312 153.7661895751953 155.19789123535156 143.8899688720703
          130.0557098388672 129.3964080810547 119.19768524169922 103.54706573486328 113.43838500976562 113.79676055908203
          127.3434066772461 138.38400268554688 136.71212768554688 145.97938537597656 156.2023162841797 151.5885467529297
          154.89105224609375 162.6838836669922 154.89105224609375 151.5885467529297 156.2023162841797 145.97938537597656
          136.71212768554688 138.38400268554688 127.3434066772461 113.79676055908203 113.43838500976562 103.54706573486328
          77.82310485839844 87.33467864990234 87.3213119506836 100.51264953613281 111.22300720214844 109.25443267822266
          118.2665023803711 128.28285217285156 123.51704406738281 126.72649383544922 134.48797607421875 126.72649383544922
          123.51704406738281 128.28285217285156 118.2665023803711 109.25443267822266 111.22300720214844 100.51264953613281
          87.3213119506836 87.33467864990234 77.82310485839844 82.85867309570312 91.92871856689453 91.48314666748047
          104.26138305664062 114.58778381347656 112.27424621582031 120.9896240234375 130.7657928466797 125.8232192993164
          128.92445373535156 136.64952087402344 128.92445373535156 125.8232192993164 130.7657928466797 120.9896240234375
          112.27424621582031 114.58778381347656 104.26138305664062 91.48314666748047 91.92871856689453 82.85867309570312
          101.18018341064453 109.75879669189453 108.83214569091797 121.15058135986328 131.04962158203125 128.3521270751953
          136.7372589111328 146.24610900878906 141.10678100585938 144.0875701904297 151.77207946777344 144.0875701904297
          141.10678100585938 146.24610900878906 136.7372589111328 128.3521270751953 131.04962158203125 121.15058135986328
          108.83214569091797 109.75879669189453 101.18018341064453 89.69853973388672 97.74842834472656 96.30418395996094
          108.12791442871094 117.56715393066406 114.45655822753906 122.48638916015625 131.70762634277344 126.3565902709961
          129.20782470703125 136.84869384765625 129.20782470703125 126.3565902709961 131.70762634277344 122.48638916015625
          114.45655822753906 117.56715393066406 108.12791442871094 96.30418395996094 97.74842834472656 89.69853973388672
          60.02120590209961 67.51789093017578 65.53211212158203 76.8382568359375 85.79642486572266 82.25361633300781
          89.91169738769531 98.8320083618164 93.25949096679688 95.97513580322266 103.57037353515625 95.97513580322266
          93.25949096679688 98.8320083618164 89.91169738769531 82.25361633300781 85.79642486572266 76.8382568359375
          65.53211212158203 67.51789093017578 60.02120590209961 57.11373519897461 64.04531860351562 61.50634002685547
          72.28375244140625 80.75048065185547 76.76615905761719 84.04449462890625 92.65740203857422 86.85862731933594
          89.43578338623047 96.98439025878906 89.43578338623047 86.85862731933594 92.65740203857422 84.04449462890625
          76.76615905761719 80.75048065185547 72.28375244140625 61.50634002685547 64.04531860351562 57.11373519897461
          60.763465881347656 67.6950454711914 65.15606689453125 75.93347930908203 84.40021514892578 80.41588592529297
          87.69422149658203 96.30712890625 90.50835418701172 93.08551025390625 100.63412475585938 93.08551025390625
          90.50835418701172 96.30712890625 87.69422149658203 80.41588592529297 84.40021514892578 75.93347930908203
          65.15606689453125 67.6950454711914 60.763465881347656 85.8779525756836 93.37464141845703 91.38885498046875
          102.69499969482422 111.65316772460938 108.11035919189453 115.76844024658203 124.68875122070312 119.1162338256836
          121.8318862915039 129.4271240234375 121.8318862915039 119.1162338256836 124.68875122070312 115.76844024658203
          108.11035919189453 111.65316772460938 102.69499969482422 91.38885498046875 93.37464141845703 85.8779525756836
          72.80931091308594 80.85919189453125 79.41494750976562 91.23868560791016 100.67792510986328 97.56732940673828
          105.59716033935547 114.81839752197266 109.46736145019531 112.31858825683594 119.95947265625 112.31858825683594
          109.46736145019531 114.81839752197266 105.59716033935547 97.56732940673828 100.67792510986328 91.23868560791016
          79.41494750976562 80.85919189453125 72.80931091308594 95.53707885742188 104.1156997680664 103.18904113769531
          115.50747680664062 125.4065170288086 122.70902252197266 131.0941619873047 140.60301208496094 135.4636688232422
          138.44447326660156 146.1289825439453 138.44447326660156 135.4636688232422 140.60301208496094 131.0941619873047
          122.70902252197266 125.4065170288086 115.50747680664062 103.18904113769531 104.1156997680664 95.53707885742188
          84.591796875 93.66184997558594 93.21627044677734 105.9945068359375 116.32090759277344 114.00736999511719
          122.72274780273438 132.49893188476562 127.55634307861328 130.65757751464844 138.3826446533203 130.65757751464844
          127.55634307861328 132.49893188476562 122.72274780273438 114.00736999511719 116.32090759277344 105.9945068359375
          93.21627044677734 93.66184997558594 84.591796875 103.03485107421875 112.54641723632812 112.53305053710938
          125.7243881225586 136.43475341796875 134.46617126464844 143.47824096679688 153.49459838867188 148.72879028320312
          151.938232421875 159.69972229003906 151.938232421875 148.72879028320312 153.49459838867188 143.47824096679688
          134.46617126464844 136.43475341796875 125.7243881225586 112.53305053710938 112.54641723632812 103.03485107421875
          94.97672271728516 104.8680419921875 105.2264175415039 118.77306365966797 129.81365966796875 128.14178466796875
          137.40904235839844 147.63197326660156 143.01820373535156 146.32070922851562 154.11354064941406 146.32070922851562
          143.01820373535156 147.63197326660156 137.40904235839844 128.14178466796875 129.81365966796875 118.77306365966797
          105.2264175415039 104.8680419921875 94.97672271728516 107.54818725585938 117.74691009521484 118.40621185302734
          132.240478515625 143.54840087890625 142.11669921875 151.5905303955078 161.98068237304688 157.489990234375
          160.86782836914062 168.68601989746094 160.86782836914062 157.489990234375 161.98068237304688 151.5905303955078
          142.11669921875 143.54840087890625 132.240478515625 118.40621185302734 117.74691009521484 107.54818725585938
          102.90314483642578 113.328125 114.20891571044922 128.25486755371094 139.75955200195312 138.50462341308594
          148.1304931640625 158.6437225341797 154.2436065673828 157.67691040039062 165.51376342773438 157.67691040039062
          154.2436065673828 158.6437225341797 148.1304931640625 138.50462341308594 139.75955200195312 128.25486755371094
          114.20891571044922 113.328125 102.90314483642578 108.49817657470703 119.0616455078125 120.07801055908203
          134.2535400390625 145.878662109375 144.73193359375 154.4508819580078 165.0394287109375 160.6947784423828
          164.16201782226562 172.0102996826172 164.16201782226562 160.6947784423828 165.0394287109375 154.4508819580078
          144.73193359375 145.878662109375 134.2535400390625 120.07801055908203 119.0616455078125 108.49817657470703
          107.55484771728516 118.16494750976562 119.22695922851562 133.4461212158203 145.11178588867188 144.00148010253906
          153.75177001953125 164.36569213867188 160.03970336914062 163.51837158203125 171.37049865722656 163.51837158203125
          160.03970336914062 164.36569213867188 153.75177001953125 144.00148010253906 145.11178588867188 133.4461212158203
          119.22695922851562 118.16494750976562 107.55484771728516 105.67577362060547 116.23924255371094 117.25560760498047
          131.43113708496094 143.05625915527344 141.90953063964844 151.62847900390625 162.217041015625 157.87237548828125
          161.33961486816406 169.18789672851562 161.33961486816406 157.87237548828125 162.217041015625 151.62847900390625
          141.90953063964844 143.05625915527344 131.43113708496094 117.25560760498047 116.23924255371094 105.67577362060547
          108.491455078125 118.91642761230469 119.79722595214844 133.84317016601562 145.3478546142578 144.09292602539062
          153.7187957763672 164.23202514648438 159.83192443847656 163.2652130126953 171.10208129882812 163.2652130126953
          159.83192443847656 164.23202514648438 153.7187957763672 144.09292602539062 145.3478546142578 133.84317016601562
          119.79722595214844 118.91642761230469 108.491455078125 99.30582427978516 109.5045394897461 110.1638412475586
          123.99810791015625 135.3060302734375 133.87432861328125 143.34815979003906 153.73831176757812 149.24761962890625
          152.62545776367188 160.4436492919922 152.62545776367188 149.24761962890625 153.73831176757812 143.34815979003906
          133.87432861328125 135.3060302734375 123.99810791015625 110.1638412475586 109.5045394897461 99.30582427978516
          105.70818328857422 115.59949493408203 115.95787811279297 129.5045166015625 140.5451202392578 138.8732452392578
          148.1405029296875 158.36341857910156 153.74966430664062 157.0521697998047 164.84500122070312 157.0521697998047
          153.74966430664062 158.36341857910156 148.1405029296875 138.8732452392578 140.5451202392578 129.5045166015625
          115.95787811279297 115.59949493408203 105.70818328857422 90.02909088134766 99.54066467285156 99.52729797363281
          112.71863555908203 123.42899322509766 121.46041870117188 130.4724884033203 140.4888458251953 135.72303771972656
          138.93247985839844 146.6939697265625 138.93247985839844 135.72303771972656 140.4888458251953 130.4724884033203
          121.46041870117188 123.42899322509766 112.71863555908203 99.52729797363281 99.54066467285156 90.02909088134766
          99.61154174804688 108.68159484863281 108.23601531982422 121.01425170898438 131.3406524658203 129.02711486816406
          137.74249267578125 147.5186767578125 142.5760955810547 145.6773223876953 153.4023895263672 145.6773223876953
          142.5760955810547 147.5186767578125 137.74249267578125 129.02711486816406 131.3406524658203 121.01425170898438
          108.23601531982422 108.68159484863281 99.61154174804688 78.80397033691406 87.38258361816406 86.4559326171875
          98.77436828613281 108.67340850830078 105.97591400146484 114.36104583740234 123.8698959350586 118.73056030273438
          121.71136474609375 129.3958740234375 121.71136474609375 118.73056030273438 123.8698959350586 114.36104583740234
          105.97591400146484 108.67340850830078 98.77436828613281 86.4559326171875 87.38258361816406 78.80397033691406
          90.9208755493164 98.97076416015625 97.52651977539062 109.35025024414062 118.78948974609375 115.67889404296875
          123.70872497558594 132.92996215820312 127.57892608642578 130.43016052246094 138.07102966308594 130.43016052246094
          127.57892608642578 132.92996215820312 123.70872497558594 115.67889404296875 118.78948974609375 109.35025024414062
          97.52651977539062 98.97076416015625 90.9208755493164 66.75043487548828 74.24712371826172 72.26133728027344
          83.5674819946289 92.52565002441406 88.98284149169922 96.64092254638672 105.56123352050781 99.98871612548828
          102.7043685913086 110.29960632324219 102.7043685913086 99.98871612548828 105.56123352050781 96.64092254638672
          88.98284149169922 92.52565002441406 83.5674819946289 72.26133728027344 74.24712371826172 66.75043487548828
          80.52410125732422 87.45568084716797 84.91670227050781 95.6941146850586 104.16084289550781 100.17652130126953
          107.4548568725586 116.06776428222656 110.26898956298828 112.84614562988281 120.3947525024414 112.84614562988281
          110.26898956298828 116.06776428222656 107.4548568725586 100.17652130126953 104.16084289550781 95.6941146850586
          84.91670227050781 87.45568084716797 80.52410125732422 37.35310363769531 62.467586517333984 49.398948669433594
          72.12671661376953 61.181434631347656 79.6244888305664 71.56636047363281 84.13782501220703 79.49278259277344
          85.08781433105469 84.14448547363281 82.26541137695312 85.08109283447266 75.89546203613281 82.29782104492188
          66.61872863769531 76.20117950439453 55.39360427856445 67.51051330566406 43.34006881713867 57.11373519897461
          44.28468704223633 69.96427917480469 57.44883346557617 80.70533752441406 70.2514877319336 89.13605499267578
          81.45767974853516 94.3365478515625 89.91776275634766 95.65128326416016 94.75458526611328 92.8288803100586
          95.50606536865234 86.09417724609375 92.18913269042969 76.13030242919922 85.27123260498047 63.97222137451172
          75.5604019165039 50.83675765991211 64.04531860351562 41.74570846557617 67.9784927368164 56.00458908081055
          79.77867889404297 69.805908203125 89.12268829345703 81.81605529785156 94.995849609375 90.79855346679688
          96.66764831542969 95.81659698486328 93.84524536132812 96.3868637084961 86.75347900390625 92.54751586914062
          76.11693572998047 84.82565307617188 63.045570373535156 74.11615753173828 48.850975036621094 61.50634002685547
          52.52312088012695 79.28463745117188 67.82832336425781 92.09711456298828 82.58414459228516 102.31402587890625
          95.36270141601562 108.83011627197266 104.8445053100586 110.84317779541016 110.03575134277344 108.0207748413086
          110.43281555175781 100.5877456665039 106.09415435791016 89.30827331542969 97.60388946533203 75.36400604248047
          85.93988800048828 60.15712356567383 72.28375244140625 60.98985290527344 88.24280548095703 77.26756286621094
          101.99615478515625 92.9105453491211 113.0243911743164 106.4032974243164 120.1380386352539 116.34918975830078
          122.46829986572266 121.70142364501953 119.6458969116211 121.93749237060547 111.89566802978516 117.13475799560547
          100.01863098144531 107.93029022216797 85.26304626464844 95.3791275024414 69.11528778076172 80.75048065185547
          57.005523681640625 84.69999694824219 74.15696716308594 99.29866027832031 90.59700775146484 111.0558090209961
          104.73141479492188 118.70633697509766 115.09425354003906 121.32157135009766 120.59112548828125 118.4991683959961
          120.68256378173828 110.4639663696289 115.46287536621094 98.05005645751953 105.61675262451172 82.5655517578125
          92.2685317993164 65.57247924804688 76.76615905761719 64.28385925292969 92.35807800292969 82.18679809570312
          107.68379974365234 99.31238555908203 120.06788635253906 113.9986801147461 128.18016052246094 124.72013092041016
          131.04051208496094 130.34140014648438 128.21810913085938 130.30844116210938 119.93779754638672 124.73014068603516
          107.06212615966797 114.3321304321289 90.95068359375 100.2983627319336 73.23056030273438 84.04449462890625
          72.89676666259766 101.27838897705078 91.40803527832031 117.1926498413086 109.08856201171875 130.084228515625
          124.22160339355469 138.5703125 135.2333526611328 141.6290740966797 140.955322265625 138.80667114257812